3
Step 0: E(kin) = 0.00001117, E(pot) = -0.03490408, E(tot) = -0.03489292
Ar      0.000000   0.000000   0.000000
Ar      0.000000   0.000000   0.500000
Ar      0.100000   0.200000  -0.500000
3
Step 1: E(kin) = 0.00010074, E(pot) = -0.03499358, E(tot) = -0.03489284
Ar      0.000025   0.000049   0.000111
Ar      0.000000   0.000000   0.499764
Ar      0.099975   0.199950  -0.499875
3
Step 2: E(kin) = 0.00028120, E(pot) = -0.03517387, E(tot) = -0.03489267
Ar      0.000074   0.000148   0.000333
Ar      0.000001   0.000001   0.499292
Ar      0.099926   0.199851  -0.499625
3
Step 3: E(kin) = 0.00055517, E(pot) = -0.03544759, E(tot) = -0.03489242
Ar      0.000148   0.000295   0.000668
Ar      0.000001   0.000002   0.498582
Ar      0.099851   0.199702  -0.499250
3
Step 4: E(kin) = 0.00092675, E(pot) = -0.03581881, E(tot) = -0.03489206
Ar      0.000246   0.000492   0.001119
Ar      0.000002   0.000004   0.497630
Ar      0.099752   0.199504  -0.498749
3
Step 5: E(kin) = 0.00140159, E(pot) = -0.03629319, E(tot) = -0.03489160
Ar      0.000369   0.000738   0.001689
Ar      0.000003   0.000006   0.496434
Ar      0.099628   0.199255  -0.498123
3
Step 6: E(kin) = 0.00198715, E(pot) = -0.03687815, E(tot) = -0.03489100
Ar      0.000517   0.001033   0.002383
Ar      0.000005   0.000009   0.494987
Ar      0.099479   0.198957  -0.497370
3
Step 7: E(kin) = 0.00269294, E(pot) = -0.03758319, E(tot) = -0.03489025
Ar      0.000689   0.001377   0.003206
Ar      0.000007   0.000013   0.493284
Ar      0.099305   0.198609  -0.496490
3
Step 8: E(kin) = 0.00353091, E(pot) = -0.03842022, E(tot) = -0.03488931
Ar      0.000885   0.001770   0.004165
Ar      0.000009   0.000018   0.491318
Ar      0.099106   0.198211  -0.495483
3
Step 9: E(kin) = 0.00451587, E(pot) = -0.03940403, E(tot) = -0.03488816
Ar      0.001106   0.002212   0.005267
Ar      0.000012   0.000025   0.489080
Ar      0.098882   0.197763  -0.494347
3
Step 10: E(kin) = 0.00566608, E(pot) = -0.04055282, E(tot) = -0.03488674
Ar      0.001351   0.002702   0.006523
Ar      0.000017   0.000033   0.486559
Ar      0.098633   0.197265  -0.493083
3
Step 11: E(kin) = 0.00700398, E(pot) = -0.04188898, E(tot) = -0.03488500
Ar      0.001620   0.003240   0.007944
Ar      0.000022   0.000043   0.483744
Ar      0.098358   0.196717  -0.491688
3
Step 12: E(kin) = 0.00855693, E(pot) = -0.04343982, E(tot) = -0.03488289
Ar      0.001913   0.003825   0.009541
Ar      0.000028   0.000056   0.480622
Ar      0.098059   0.196119  -0.490163
3
Step 13: E(kin) = 0.01035820, E(pot) = -0.04523854, E(tot) = -0.03488034
Ar      0.002229   0.004458   0.011331
Ar      0.000036   0.000072   0.477176
Ar      0.097735   0.195470  -0.488507
3
Step 14: E(kin) = 0.01244773, E(pot) = -0.04732508, E(tot) = -0.03487736
Ar      0.002569   0.005138   0.013329
Ar      0.000046   0.000091   0.473388
Ar      0.097385   0.194771  -0.486717
3
Step 15: E(kin) = 0.01487261, E(pot) = -0.04974659, E(tot) = -0.03487398
Ar      0.002932   0.005863   0.015556
Ar      0.000057   0.000115   0.469239
Ar      0.097011   0.194022  -0.484795
3
Step 16: E(kin) = 0.01768633, E(pot) = -0.05255681, E(tot) = -0.03487048
Ar      0.003316   0.006633   0.018033
Ar      0.000072   0.000144   0.464706
Ar      0.096612   0.193223  -0.482739
3
Step 17: E(kin) = 0.02094503, E(pot) = -0.05581263, E(tot) = -0.03486760
Ar      0.003723   0.007446   0.020783
Ar      0.000090   0.000180   0.459764
Ar      0.096187   0.192374  -0.480547
3
Step 18: E(kin) = 0.02469713, E(pot) = -0.05956421, E(tot) = -0.03486707
Ar      0.004151   0.008301   0.023832
Ar      0.000111   0.000223   0.454389
Ar      0.095738   0.191476  -0.478220
3
Step 19: E(kin) = 0.02895799, E(pot) = -0.06383084, E(tot) = -0.03487285
Ar      0.004598   0.009196   0.027201
Ar      0.000138   0.000275   0.448556
Ar      0.095264   0.190528  -0.475758
3
Step 20: E(kin) = 0.03365326, E(pot) = -0.06854664, E(tot) = -0.03489338
Ar      0.005065   0.010129   0.030909
Ar      0.000169   0.000338   0.442250
Ar      0.094766   0.189532  -0.473159
3
Step 21: E(kin) = 0.03849943, E(pot) = -0.07344504, E(tot) = -0.03494561
Ar      0.005549   0.011099   0.034954
Ar      0.000207   0.000413   0.435469
Ar      0.094244   0.188488  -0.470423
3
Step 22: E(kin) = 0.04277432, E(pot) = -0.07783339, E(tot) = -0.03505907
Ar      0.006051   0.012103   0.039299
Ar      0.000250   0.000500   0.428252
Ar      0.093698   0.187397  -0.467551
3
Step 23: E(kin) = 0.04496303, E(pot) = -0.08022960, E(tot) = -0.03526658
Ar      0.006572   0.013143   0.043831
Ar      0.000299   0.000598   0.420712
Ar      0.093129   0.186259  -0.464543
3
Step 24: E(kin) = 0.04255632, E(pot) = -0.07808699, E(tot) = -0.03553067
Ar      0.007113   0.014227   0.048286
Ar      0.000349   0.000698   0.413114
Ar      0.092537   0.185075  -0.461400
3
Step 25: E(kin) = 0.03326220, E(pot) = -0.06880907, E(tot) = -0.03554687
Ar      0.007686   0.015372   0.052141
Ar      0.000391   0.000782   0.405979
Ar      0.091923   0.183846  -0.458120
3
Step 26: E(kin) = 0.01959329, E(pot) = -0.05443386, E(tot) = -0.03484057
Ar      0.008308   0.016615   0.054535
Ar      0.000406   0.000812   0.400169
Ar      0.091286   0.182573  -0.454704
3
Step 27: E(kin) = 0.01244366, E(pot) = -0.04656764, E(tot) = -0.03412398
Ar      0.009005   0.018010   0.054437
Ar      0.000368   0.000736   0.396709
Ar      0.090627   0.181254  -0.451146
3
Step 28: E(kin) = 0.02023447, E(pot) = -0.05495799, E(tot) = -0.03472353
Ar      0.009799   0.019598   0.051299
Ar      0.000257   0.000514   0.396142
Ar      0.089944   0.179888  -0.447441
3
Step 29: E(kin) = 0.03605057, E(pot) = -0.07154062, E(tot) = -0.03549005
Ar      0.010685   0.021371   0.045559
Ar      0.000079   0.000158   0.398014
Ar      0.089236   0.178471  -0.443573
3
Step 30: E(kin) = 0.04858286, E(pot) = -0.08410618, E(tot) = -0.03552332
Ar      0.011643   0.023286   0.038215
Ar     -0.000141  -0.000282   0.401309
Ar      0.088498   0.176996  -0.439525
3
Step 31: E(kin) = 0.05456903, E(pot) = -0.08982458, E(tot) = -0.03525555
Ar      0.012650   0.025300   0.030137
Ar     -0.000378  -0.000756   0.405131
Ar      0.087728   0.175455  -0.435269
3
Step 32: E(kin) = 0.05616411, E(pot) = -0.09119306, E(tot) = -0.03502895
Ar      0.013694   0.027389   0.021848
Ar     -0.000613  -0.001227   0.408925
Ar      0.086919   0.173838  -0.430773
3
Step 33: E(kin) = 0.05604404, E(pot) = -0.09094245, E(tot) = -0.03489841
Ar      0.014771   0.029542   0.013593
Ar     -0.000837  -0.001674   0.412408
Ar      0.086066   0.172132  -0.426001
3
Step 34: E(kin) = 0.05591748, E(pot) = -0.09075226, E(tot) = -0.03483478
Ar      0.015882   0.031763   0.005455
Ar     -0.001043  -0.002086   0.415454
Ar      0.085161   0.170323  -0.420909
3
Step 35: E(kin) = 0.05664322, E(pot) = -0.09145520, E(tot) = -0.03481198
Ar      0.017031   0.034063  -0.002572
Ar     -0.001229  -0.002458   0.418025
Ar      0.084198   0.168395  -0.415452
3
Step 36: E(kin) = 0.05852405, E(pot) = -0.09334834, E(tot) = -0.03482430
Ar      0.018226   0.036453  -0.010537
Ar     -0.001394  -0.002788   0.420121
Ar      0.083168   0.166336  -0.409585
3
Step 37: E(kin) = 0.06137278, E(pot) = -0.09626577, E(tot) = -0.03489300
Ar      0.019473   0.038945  -0.018493
Ar     -0.001538  -0.003077   0.421765
Ar      0.082066   0.164132  -0.403272
3
Step 38: E(kin) = 0.06421357, E(pot) = -0.09929538, E(tot) = -0.03508180
Ar      0.020770   0.041540  -0.026472
Ar     -0.001662  -0.003324   0.422985
Ar      0.080892   0.161783  -0.396513
3
Step 39: E(kin) = 0.06445939, E(pot) = -0.09996533, E(tot) = -0.03550594
Ar      0.022106   0.044212  -0.034420
Ar     -0.001765  -0.003531   0.423814
Ar      0.079659   0.159319  -0.389394
3
Step 40: E(kin) = 0.05685011, E(pot) = -0.09303055, E(tot) = -0.03618045
Ar      0.023434   0.046868  -0.042079
Ar     -0.001850  -0.003700   0.424282
Ar      0.078416   0.156832  -0.382203
3
Step 41: E(kin) = 0.03556608, E(pot) = -0.07182888, E(tot) = -0.03626280
Ar      0.024639   0.049278  -0.048763
Ar     -0.001916  -0.003832   0.424419
Ar      0.077277   0.154554  -0.375656
3
Step 42: E(kin) = 0.00788574, E(pot) = -0.04201961, E(tot) = -0.03413387
Ar      0.025500   0.051000  -0.053117
Ar     -0.001964  -0.003929   0.424247
Ar      0.076464   0.152929  -0.371130
3
Step 43: E(kin) = 0.00250117, E(pot) = -0.03588012, E(tot) = -0.03337895
Ar      0.025753   0.051506  -0.053492
Ar     -0.001995  -0.003991   0.423780
Ar      0.076242   0.152485  -0.370288
3
Step 44: E(kin) = 0.02688650, E(pot) = -0.06270343, E(tot) = -0.03581693
Ar      0.025347   0.050693  -0.049549
Ar     -0.002009  -0.004018   0.423019
Ar      0.076662   0.153325  -0.373470
3
Step 45: E(kin) = 0.05287802, E(pot) = -0.08922948, E(tot) = -0.03635146
Ar      0.024511   0.049023  -0.042706
Ar     -0.002004  -0.004009   0.421948
Ar      0.077493   0.154986  -0.379241
3
Step 46: E(kin) = 0.06520773, E(pot) = -0.10090610, E(tot) = -0.03569837
Ar      0.023496   0.046992  -0.034514
Ar     -0.001980  -0.003960   0.420540
Ar      0.078484   0.156968  -0.386026
3
Step 47: E(kin) = 0.06763826, E(pot) = -0.10281470, E(tot) = -0.03517645
Ar      0.022444   0.044888  -0.025853
Ar     -0.001935  -0.003869   0.418762
Ar      0.079490   0.158981  -0.392909
3
Step 48: E(kin) = 0.06622005, E(pot) = -0.10114803, E(tot) = -0.03492798
Ar      0.021416   0.042832  -0.017086
Ar     -0.001867  -0.003733   0.416578
Ar      0.080451   0.160902  -0.399492
3
Step 49: E(kin) = 0.06428052, E(pot) = -0.09911961, E(tot) = -0.03483909
Ar      0.020430   0.040860  -0.008313
Ar     -0.001775  -0.003549   0.413952
Ar      0.081344   0.162689  -0.405639
3
Step 50: E(kin) = 0.06307089, E(pot) = -0.09790747, E(tot) = -0.03483658
Ar      0.019489   0.038977   0.000476
Ar     -0.001657  -0.003315   0.410856
Ar      0.082169   0.164337  -0.411332
3
Step 51: E(kin) = 0.06264478, E(pot) = -0.09754939, E(tot) = -0.03490461
Ar      0.018587   0.037174   0.009316
Ar     -0.001515  -0.003031   0.407283
Ar      0.082928   0.165857  -0.416599
3
Step 52: E(kin) = 0.06208675, E(pot) = -0.09715598, E(tot) = -0.03506923
Ar      0.017720   0.035440   0.018210
Ar     -0.001351  -0.002702   0.403274
Ar      0.083631   0.167262  -0.421484
3
Step 53: E(kin) = 0.05925442, E(pot) = -0.09462097, E(tot) = -0.03536655
Ar      0.016888   0.033776   0.027064
Ar     -0.001171  -0.002343   0.398968
Ar      0.084283   0.168566  -0.426033
3
Step 54: E(kin) = 0.05072630, E(pot) = -0.08642676, E(tot) = -0.03570046
Ar      0.016101   0.032202   0.035586
Ar     -0.000993  -0.001987   0.394704
Ar      0.084892   0.169785  -0.430290
3
Step 55: E(kin) = 0.03425382, E(pot) = -0.06978379, E(tot) = -0.03552997
Ar      0.015385   0.030769   0.043136
Ar     -0.000849  -0.001699   0.391158
Ar      0.085465   0.170929  -0.434294
3
Step 56: E(kin) = 0.01597013, E(pot) = -0.05036303, E(tot) = -0.03439290
Ar      0.014785   0.029569   0.048656
Ar     -0.000789  -0.001578   0.389419
Ar      0.086004   0.172009  -0.438075
3
Step 57: E(kin) = 0.01115972, E(pot) = -0.04518822, E(tot) = -0.03402850
Ar      0.014347   0.028695   0.051044
Ar     -0.000862  -0.001725   0.390612
Ar      0.086515   0.173030  -0.441655
3
Step 58: E(kin) = 0.02378483, E(pot) = -0.05899429, E(tot) = -0.03520946
Ar      0.014079   0.028157   0.050075
Ar     -0.001077  -0.002155   0.394975
Ar      0.086999   0.173998  -0.445050
3
Step 59: E(kin) = 0.03960867, E(pot) = -0.07538199, E(tot) = -0.03577332
Ar      0.013935   0.027871   0.046657
Ar     -0.001392  -0.002784   0.401608
Ar      0.087456   0.174913  -0.448265
3
Step 60: E(kin) = 0.04788859, E(pot) = -0.08343296, E(tot) = -0.03554437
Ar      0.013865   0.027731   0.041971
Ar     -0.001753  -0.003506   0.409330
Ar      0.087888   0.175775  -0.451301
3
Step 61: E(kin) = 0.04863446, E(pot) = -0.08385044, E(tot) = -0.03521597
Ar      0.013833   0.027665   0.036849
Ar     -0.002124  -0.004249   0.417307
Ar      0.088292   0.176584  -0.454156
3
Step 62: E(kin) = 0.04527200, E(pot) = -0.08028431, E(tot) = -0.03501231
Ar      0.013819   0.027639   0.031734
Ar     -0.002488  -0.004976   0.425093
Ar      0.088669   0.177337  -0.456828
3
Step 63: E(kin) = 0.04039706, E(pot) = -0.07531134, E(tot) = -0.03491428
Ar      0.013818   0.027636   0.026824
Ar     -0.002835  -0.005669   0.432487
Ar      0.089017   0.178033  -0.459312
3
Step 64: E(kin) = 0.03534543, E(pot) = -0.07021929, E(tot) = -0.03487386
Ar      0.013827   0.027653   0.022188
Ar     -0.003162  -0.006324   0.439416
Ar      0.089335   0.178671  -0.461604
3
Step 65: E(kin) = 0.03067744, E(pot) = -0.06553784, E(tot) = -0.03486041
Ar      0.013846   0.027692   0.017831
Ar     -0.003470  -0.006940   0.445871
Ar      0.089624   0.179248  -0.463702
3
Step 66: E(kin) = 0.02657533, E(pot) = -0.06143381, E(tot) = -0.03485848
Ar      0.013878   0.027755   0.013734
Ar     -0.003759  -0.007518   0.451867
Ar      0.089881   0.179763  -0.465601
3
Step 67: E(kin) = 0.02305819, E(pot) = -0.05791917, E(tot) = -0.03486098
Ar      0.013924   0.027848   0.009863
Ar     -0.004031  -0.008061   0.457433
Ar      0.090107   0.180213  -0.467296
3
Step 68: E(kin) = 0.02008339, E(pot) = -0.05494818, E(tot) = -0.03486479
Ar      0.013987   0.027974   0.006183
Ar     -0.004286  -0.008572   0.462601
Ar      0.090299   0.180598  -0.468784
3
Step 69: E(kin) = 0.01759120, E(pot) = -0.05245981, E(tot) = -0.03486861
Ar      0.014069   0.028137   0.002659
Ar     -0.004527  -0.009053   0.467402
Ar      0.090458   0.180916  -0.470061
3
Step 70: E(kin) = 0.01552321, E(pot) = -0.05039516, E(tot) = -0.03487196
Ar      0.014172   0.028343  -0.000743
Ar     -0.004753  -0.009507   0.471865
Ar      0.090582   0.181164  -0.471122
3
Step 71: E(kin) = 0.01382907, E(pot) = -0.04870374, E(tot) = -0.03487468
Ar      0.014298   0.028595  -0.004055
Ar     -0.004968  -0.009935   0.476016
Ar      0.090670   0.181340  -0.471961
3
Step 72: E(kin) = 0.01246839, E(pot) = -0.04734515, E(tot) = -0.03487676
Ar      0.014449   0.028898  -0.007307
Ar     -0.005170  -0.010340   0.479880
Ar      0.090721   0.181442  -0.472573
3
Step 73: E(kin) = 0.01141068, E(pot) = -0.04628893, E(tot) = -0.03487825
Ar      0.014628   0.029255  -0.010526
Ar     -0.005362  -0.010724   0.483478
Ar      0.090734   0.181469  -0.472952
3
Step 74: E(kin) = 0.01063468, E(pot) = -0.04551387, E(tot) = -0.03487919
Ar      0.014835   0.029671  -0.013740
Ar     -0.005543  -0.011087   0.486830
Ar      0.090708   0.181416  -0.473090
3
Step 75: E(kin) = 0.01012773, E(pot) = -0.04500732, E(tot) = -0.03487959
Ar      0.015075   0.030150  -0.016974
Ar     -0.005716  -0.011431   0.489954
Ar      0.090641   0.181282  -0.472980
3
Step 76: E(kin) = 0.00988522, E(pot) = -0.04476472, E(tot) = -0.03487949
Ar      0.015348   0.030696  -0.020255
Ar     -0.005879  -0.011758   0.492866
Ar      0.090531   0.181062  -0.472611
3
Step 77: E(kin) = 0.00991048, E(pot) = -0.04478935, E(tot) = -0.03487887
Ar      0.015657   0.031314  -0.023606
Ar     -0.006034  -0.012068   0.495580
Ar      0.090377   0.180753  -0.471974
3
Step 78: E(kin) = 0.01021484, E(pot) = -0.04509254, E(tot) = -0.03487770
Ar      0.016005   0.032011  -0.027053
Ar     -0.006181  -0.012362   0.498110
Ar      0.090176   0.180351  -0.471056
3
Step 79: E(kin) = 0.01081804, E(pot) = -0.04569401, E(tot) = -0.03487596
Ar      0.016395   0.032790  -0.030623
Ar     -0.006321  -0.012641   0.500467
Ar      0.089926   0.179851  -0.469844
3
Step 80: E(kin) = 0.01174885, E(pot) = -0.04662247, E(tot) = -0.03487361
Ar      0.016829   0.033659  -0.034343
Ar     -0.006453  -0.012907   0.502665
Ar      0.089624   0.179248  -0.468322
3
Step 81: E(kin) = 0.01304557, E(pot) = -0.04791624, E(tot) = -0.03487067
Ar      0.017312   0.034624  -0.038240
Ar     -0.006580  -0.013159   0.504713
Ar      0.089268   0.178535  -0.466472
3
Step 82: E(kin) = 0.01475604, E(pot) = -0.04962330, E(tot) = -0.03486726
Ar      0.017847   0.035693  -0.042345
Ar     -0.006699  -0.013399   0.506621
Ar      0.088853   0.177706  -0.464276
3
Step 83: E(kin) = 0.01693588, E(pot) = -0.05179969, E(tot) = -0.03486381
Ar      0.018437   0.036874  -0.046688
Ar     -0.006813  -0.013627   0.508398
Ar      0.088376   0.176753  -0.461710
3
Step 84: E(kin) = 0.01964234, E(pot) = -0.05450379, E(tot) = -0.03486145
Ar      0.019088   0.038176  -0.051302
Ar     -0.006922  -0.013843   0.510054
Ar      0.087834   0.175668  -0.458752
3
Step 85: E(kin) = 0.02291808, E(pot) = -0.05778092, E(tot) = -0.03486284
Ar      0.019803   0.039606  -0.056218
Ar     -0.007024  -0.014049   0.511597
Ar      0.087221   0.174443  -0.455379
3
Step 86: E(kin) = 0.02675266, E(pot) = -0.06162659, E(tot) = -0.03487393
Ar      0.020587   0.041173  -0.061464
Ar     -0.007122  -0.014245   0.513034
Ar      0.086536   0.173071  -0.451571
3
Step 87: E(kin) = 0.03099663, E(pot) = -0.06590408, E(tot) = -0.03490745
Ar      0.021441   0.042881  -0.067058
Ar     -0.007215  -0.014431   0.514374
Ar      0.085775   0.171549  -0.447316
3
Step 88: E(kin) = 0.03518278, E(pot) = -0.07017114, E(tot) = -0.03498836
Ar      0.022363   0.044726  -0.072995
Ar     -0.007304  -0.014607   0.515624
Ar      0.084941   0.169881  -0.442629
3
Step 89: E(kin) = 0.03819790, E(pot) = -0.07335408, E(tot) = -0.03515618
Ar      0.023343   0.046687  -0.079217
Ar     -0.007388  -0.014776   0.516791
Ar      0.084044   0.168089  -0.437574
3
Step 90: E(kin) = 0.03786200, E(pot) = -0.07329566, E(tot) = -0.03543366
Ar      0.024353   0.048707  -0.085563
Ar     -0.007468  -0.014936   0.517881
Ar      0.083114   0.166229  -0.432318
3
Step 91: E(kin) = 0.03111388, E(pot) = -0.06678787, E(tot) = -0.03567398
Ar      0.025331   0.050663  -0.091673
Ar     -0.007544  -0.015088   0.518900
Ar      0.082213   0.164425  -0.427227
3
Step 92: E(kin) = 0.01700052, E(pot) = -0.05234217, E(tot) = -0.03534166
Ar      0.026162   0.052325  -0.096872
Ar     -0.007617  -0.015233   0.519853
Ar      0.081454   0.162908  -0.422980
3
Step 93: E(kin) = 0.00302508, E(pot) = -0.03733037, E(tot) = -0.03430528
Ar      0.026677   0.053354  -0.100167
Ar     -0.007686  -0.015371   0.520744
Ar      0.081009   0.162017  -0.420577
3
Step 94: E(kin) = 0.00247041, E(pot) = -0.03672825, E(tot) = -0.03425783
Ar      0.026724   0.053449  -0.100666
Ar     -0.007751  -0.015503   0.521577
Ar      0.081027   0.162054  -0.420911
3
Step 95: E(kin) = 0.01586283, E(pot) = -0.05115876, E(tot) = -0.03529592
Ar      0.026299   0.052598  -0.098341
Ar     -0.007814  -0.015627   0.522352
Ar      0.081515   0.163030  -0.424011
3
Step 96: E(kin) = 0.03009535, E(pot) = -0.06577390, E(tot) = -0.03567855
Ar      0.025547   0.051094  -0.094053
Ar     -0.007873  -0.015745   0.523067
Ar      0.082326   0.164652  -0.429014
3
Step 97: E(kin) = 0.03708216, E(pot) = -0.07253503, E(tot) = -0.03545287
Ar      0.024640   0.049280  -0.088810
Ar     -0.007928  -0.015857   0.523722
Ar      0.083288   0.166576  -0.434911
3
Step 98: E(kin) = 0.03747443, E(pot) = -0.07264546, E(tot) = -0.03517103
Ar      0.023697   0.047393  -0.083309
Ar     -0.007980  -0.015961   0.524312
Ar      0.084284   0.168568  -0.441003
3
Step 99: E(kin) = 0.03433337, E(pot) = -0.06933077, E(tot) = -0.03499740
Ar      0.022781   0.045561  -0.077925
Ar     -0.008029  -0.016058   0.524834
Ar      0.085248   0.170496  -0.446909
3
Step 100: E(kin) = 0.02990480, E(pot) = -0.06481781, E(tot) = -0.03491301
Ar      0.021922   0.043844  -0.072833
Ar     -0.008074  -0.016147   0.525285
Ar      0.086151   0.172303  -0.452453
3
Step 101: E(kin) = 0.02534975, E(pot) = -0.06022760, E(tot) = -0.03487786
Ar      0.021132   0.042265  -0.068095
Ar     -0.008114  -0.016229   0.525662
Ar      0.086982   0.173964  -0.457566
3
Step 102: E(kin) = 0.02115995, E(pot) = -0.05602610, E(tot) = -0.03486615
Ar      0.020414   0.040828  -0.063725
Ar     -0.008151  -0.016302   0.525959
Ar      0.087737   0.175475  -0.462234
3
Step 103: E(kin) = 0.01749502, E(pot) = -0.05235967, E(tot) = -0.03486466
Ar      0.019765   0.039530  -0.059709
Ar     -0.008184  -0.016368   0.526175
Ar      0.088419   0.176838  -0.466466
3
Step 104: E(kin) = 0.01436806, E(pot) = -0.04923522, E(tot) = -0.03486716
Ar      0.019182   0.038364  -0.056024
Ar     -0.008213  -0.016425   0.526305
Ar      0.089031   0.178062  -0.470281
3
Step 105: E(kin) = 0.01173520, E(pot) = -0.04660608, E(tot) = -0.03487089
Ar      0.018661   0.037322  -0.052644
Ar     -0.008237  -0.016474   0.526346
Ar      0.089576   0.179152  -0.473701
3
Step 106: E(kin) = 0.00953576, E(pot) = -0.04441043, E(tot) = -0.03487467
Ar      0.018198   0.036396  -0.049543
Ar     -0.008257  -0.016514   0.526294
Ar      0.090059   0.180118  -0.476751
3
Step 107: E(kin) = 0.00770924, E(pot) = -0.04258732, E(tot) = -0.03487808
Ar      0.017789   0.035578  -0.046696
Ar     -0.008272  -0.016545   0.526146
Ar      0.090483   0.180966  -0.479450
3
Step 108: E(kin) = 0.00620162, E(pot) = -0.04108259, E(tot) = -0.03488097
Ar      0.017431   0.034863  -0.044081
Ar     -0.008283  -0.016566   0.525900
Ar      0.090852   0.181703  -0.481818
3
Step 109: E(kin) = 0.00496704, E(pot) = -0.03985040, E(tot) = -0.03488336
Ar      0.017121   0.034243  -0.041678
Ar     -0.008289  -0.016579   0.525550
Ar      0.091168   0.182336  -0.483873
3
Step 110: E(kin) = 0.00396760, E(pot) = -0.03885290, E(tot) = -0.03488531
Ar      0.016857   0.033713  -0.039468
Ar     -0.008291  -0.016581   0.525096
Ar      0.091434   0.182868  -0.485628
3
Step 111: E(kin) = 0.00317248, E(pot) = -0.03805934, E(tot) = -0.03488686
Ar      0.016635   0.033269  -0.037436
Ar     -0.008287  -0.016574   0.524532
Ar      0.091652   0.183304  -0.487096
3
Step 112: E(kin) = 0.00255688, E(pot) = -0.03744498, E(tot) = -0.03488810
Ar      0.016453   0.032907  -0.035567
Ar     -0.008278  -0.016556   0.523856
Ar      0.091825   0.183649  -0.488289
3
Step 113: E(kin) = 0.00210108, E(pot) = -0.03699015, E(tot) = -0.03488907
Ar      0.016311   0.032623  -0.033849
Ar     -0.008264  -0.016529   0.523065
Ar      0.091953   0.183906  -0.489216
3
Step 114: E(kin) = 0.00178954, E(pot) = -0.03667936, E(tot) = -0.03488982
Ar      0.016207   0.032414  -0.032272
Ar     -0.008245  -0.016490   0.522155
Ar      0.092038   0.184076  -0.489883
3
Step 115: E(kin) = 0.00161028, E(pot) = -0.03650066, E(tot) = -0.03489037
Ar      0.016138   0.032277  -0.030825
Ar     -0.008220  -0.016441   0.521123
Ar      0.092082   0.184164  -0.490298
3
Step 116: E(kin) = 0.00155429, E(pot) = -0.03644506, E(tot) = -0.03489077
Ar      0.016105   0.032211  -0.029499
Ar     -0.008190  -0.016380   0.519965
Ar      0.092085   0.184169  -0.490466
3
Step 117: E(kin) = 0.00161510, E(pot) = -0.03650612, E(tot) = -0.03489103
Ar      0.016106   0.032213  -0.028289
Ar     -0.008154  -0.016307   0.518678
Ar      0.092047   0.184095  -0.490389
3
Step 118: E(kin) = 0.00178849, E(pot) = -0.03667965, E(tot) = -0.03489116
Ar      0.016141   0.032282  -0.027186
Ar     -0.008112  -0.016223   0.517258
Ar      0.091970   0.183941  -0.490072
3
Step 119: E(kin) = 0.00207227, E(pot) = -0.03696344, E(tot) = -0.03489117
Ar      0.016209   0.032417  -0.026186
Ar     -0.008063  -0.016126   0.515701
Ar      0.091855   0.183709  -0.489515
3
Step 120: E(kin) = 0.00246605, E(pot) = -0.03735713, E(tot) = -0.03489108
Ar      0.016309   0.032617  -0.025284
Ar     -0.008008  -0.016017   0.514003
Ar      0.091700   0.183400  -0.488720
3
Step 121: E(kin) = 0.00297125, E(pot) = -0.03786212, E(tot) = -0.03489087
Ar      0.016441   0.032882  -0.024476
Ar     -0.007947  -0.015894   0.512160
Ar      0.091506   0.183012  -0.487685
3
Step 122: E(kin) = 0.00359100, E(pot) = -0.03848156, E(tot) = -0.03489056
Ar      0.016605   0.033210  -0.023759
Ar     -0.007879  -0.015757   0.510168
Ar      0.091274   0.182548  -0.486410
3
Step 123: E(kin) = 0.00433020, E(pot) = -0.03922033, E(tot) = -0.03489013
Ar      0.016801   0.033602  -0.023130
Ar     -0.007803  -0.015607   0.508022
Ar      0.091002   0.182004  -0.484891
3
Step 124: E(kin) = 0.00519559, E(pot) = -0.04008517, E(tot) = -0.03488957
Ar      0.017029   0.034058  -0.022589
Ar     -0.007720  -0.015441   0.505716
Ar      0.090691   0.181382  -0.483127
3
Step 125: E(kin) = 0.00619594, E(pot) = -0.04108482, E(tot) = -0.03488888
Ar      0.017289   0.034579  -0.022135
Ar     -0.007630  -0.015259   0.503246
Ar      0.090340   0.180680  -0.481111
3
Step 126: E(kin) = 0.00734217, E(pot) = -0.04223020, E(tot) = -0.03488802
Ar      0.017582   0.035164  -0.021767
Ar     -0.007531  -0.015061   0.500607
Ar      0.089949   0.179897  -0.478839
3
Step 127: E(kin) = 0.00864771, E(pot) = -0.04353470, E(tot) = -0.03488699
Ar      0.017908   0.035816  -0.021487
Ar     -0.007423  -0.014847   0.497791
Ar      0.089515   0.179031  -0.476304
3
Step 128: E(kin) = 0.01012880, E(pot) = -0.04501455, E(tot) = -0.03488575
Ar      0.018267   0.036535  -0.021296
Ar     -0.007307  -0.014614   0.494794
Ar      0.089039   0.178079  -0.473498
3
Step 129: E(kin) = 0.01180490, E(pot) = -0.04668917, E(tot) = -0.03488427
Ar      0.018661   0.037322  -0.021198
Ar     -0.007181  -0.014362   0.491608
Ar      0.088520   0.177040  -0.470410
3
Step 130: E(kin) = 0.01369922, E(pot) = -0.04858173, E(tot) = -0.03488252
Ar      0.019090   0.038180  -0.021195
Ar     -0.007045  -0.014090   0.488227
Ar      0.087955   0.175910  -0.467031
3
Step 131: E(kin) = 0.01583923, E(pot) = -0.05071968, E(tot) = -0.03488045
Ar      0.019556   0.039111  -0.021294
Ar     -0.006899  -0.013797   0.484642
Ar      0.087343   0.174686  -0.463348
3
Step 132: E(kin) = 0.01825721, E(pot) = -0.05313527, E(tot) = -0.03487806
Ar      0.020059   0.040117  -0.021501
Ar     -0.006741  -0.013482   0.480846
Ar      0.086683   0.173365  -0.459345
3
Step 133: E(kin) = 0.02099067, E(pot) = -0.05586601, E(tot) = -0.03487534
Ar      0.020600   0.041201  -0.021823
Ar     -0.006572  -0.013143   0.476831
Ar      0.085971   0.171942  -0.455008
3
Step 134: E(kin) = 0.02408231, E(pot) = -0.05895469, E(tot) = -0.03487238
Ar      0.021183   0.042366  -0.022269
Ar     -0.006390  -0.012779   0.472587
Ar      0.085207   0.170413  -0.450318
3
Step 135: E(kin) = 0.02757907, E(pot) = -0.06244847, E(tot) = -0.03486940
Ar      0.021808   0.043615  -0.022849
Ar     -0.006194  -0.012388   0.468103
Ar      0.084387   0.168773  -0.445254
3
Step 136: E(kin) = 0.03152891, E(pot) = -0.06639585, E(tot) = -0.03486694
Ar      0.022476   0.044952  -0.023574
Ar     -0.005984  -0.011969   0.463371
Ar      0.083508   0.167016  -0.439797
3
Step 137: E(kin) = 0.03597321, E(pot) = -0.07083940, E(tot) = -0.03486619
Ar      0.023190   0.046380  -0.024456
Ar     -0.005759  -0.011518   0.458379
Ar      0.082569   0.165138  -0.433923
3
Step 138: E(kin) = 0.04093001, E(pot) = -0.07579959, E(tot) = -0.03486958
Ar      0.023951   0.047901  -0.025502
Ar     -0.005517  -0.011035   0.453115
Ar      0.081567   0.163133  -0.427613
3
Step 139: E(kin) = 0.04635982, E(pot) = -0.08124169, E(tot) = -0.03488188
Ar      0.024758   0.049517  -0.026716
Ar     -0.005258  -0.010516   0.447567
Ar      0.080500   0.161000  -0.420851
3
Step 140: E(kin) = 0.05209937, E(pot) = -0.08701124, E(tot) = -0.03491187
Ar      0.025611   0.051222  -0.028089
Ar     -0.004980  -0.009960   0.441722
Ar      0.079369   0.158737  -0.413632
3
Step 141: E(kin) = 0.05774466, E(pot) = -0.09271836, E(tot) = -0.03497370
Ar      0.026504   0.053008  -0.029586
Ar     -0.004681  -0.009362   0.435565
Ar      0.078177   0.156354  -0.405979
3
Step 142: E(kin) = 0.06248127, E(pot) = -0.09756407, E(tot) = -0.03508281
Ar      0.027425   0.054850  -0.031121
Ar     -0.004360  -0.008721   0.429081
Ar      0.076935   0.153871  -0.397960
3
Step 143: E(kin) = 0.06496888, E(pot) = -0.10019895, E(tot) = -0.03523007
Ar      0.028350   0.056699  -0.032523
Ar     -0.004016  -0.008031   0.422255
Ar      0.075666   0.151332  -0.389732
3
Step 144: E(kin) = 0.06372514, E(pot) = -0.09903640, E(tot) = -0.03531126
Ar      0.029236   0.058471  -0.033469
Ar     -0.003645  -0.007290   0.415068
Ar      0.074409   0.148819  -0.381599
3
Step 145: E(kin) = 0.05887248, E(pot) = -0.09396298, E(tot) = -0.03509050
Ar      0.030015   0.060030  -0.033430
Ar     -0.003246  -0.006492   0.407498
Ar      0.073231   0.146462  -0.374067
3
Step 146: E(kin) = 0.05482115, E(pot) = -0.08938139, E(tot) = -0.03456024
Ar      0.030600   0.061201  -0.031699
Ar     -0.002816  -0.005632   0.399519
Ar      0.072216   0.144432  -0.367819
3
Step 147: E(kin) = 0.05881127, E(pot) = -0.09322044, E(tot) = -0.03440917
Ar      0.030917   0.061833  -0.027637
Ar     -0.002352  -0.004703   0.391099
Ar      0.071435   0.142870  -0.363462
3
Step 148: E(kin) = 0.07259581, E(pot) = -0.10754986, E(tot) = -0.03495405
Ar      0.030952   0.061904  -0.021087
Ar     -0.001850  -0.003699   0.382208
Ar      0.070898   0.141795  -0.361121
3
Step 149: E(kin) = 0.08890243, E(pot) = -0.12455099, E(tot) = -0.03564856
Ar      0.030765   0.061531  -0.012509
Ar     -0.001309  -0.002617   0.372842
Ar      0.070543   0.141087  -0.360333
3
Step 150: E(kin) = 0.09677450, E(pot) = -0.13335223, E(tot) = -0.03657773
Ar      0.030451   0.060902  -0.002715
Ar     -0.000737  -0.001474   0.363110
Ar      0.070286   0.140572  -0.360395
3
Step 151: E(kin) = 0.08281416, E(pot) = -0.12086834, E(tot) = -0.03805418
Ar      0.030115   0.060231   0.007241
Ar     -0.000173  -0.000346   0.353470
Ar      0.070058   0.140115  -0.360711
3
Step 152: E(kin) = 0.03787014, E(pot) = -0.07462333, E(tot) = -0.03675319
Ar      0.029917   0.059835   0.015647
Ar      0.000265   0.000531   0.345266
Ar      0.069817   0.139634  -0.360914
3
Step 153: E(kin) = 0.00151405, E(pot) = -0.03225775, E(tot) = -0.03074369
Ar      0.030128   0.060257   0.019558
Ar      0.000327   0.000653   0.341261
Ar      0.069545   0.139090  -0.360819
3
Step 154: E(kin) = 0.03055793, E(pot) = -0.06651181, E(tot) = -0.03595389
Ar      0.030973   0.061947   0.016664
Ar     -0.000210  -0.000421   0.343712
Ar      0.069237   0.138474  -0.360375
3
Step 155: E(kin) = 0.07831022, E(pot) = -0.11661059, E(tot) = -0.03830037
Ar      0.032291   0.064582   0.008827
Ar     -0.001191  -0.002381   0.350813
Ar      0.068899   0.137799  -0.359639
3